  -0.4878700         3.0966515E-32
  -0.4868700         9.2793653E-32
  -0.4858700         1.5440479E-31
  -0.4848700         2.1579704E-31
  -0.4838700         2.7697289E-31
  -0.4828700         3.3793485E-31
  -0.4818700         3.9868537E-31
  -0.4808700         4.5922685E-31
  -0.4798700         5.1956169E-31
  -0.4788700         5.7969226E-31
  -0.4778700         6.3962099E-31
  -0.4768700         6.9935007E-31
  -0.4758700         7.5888176E-31
  -0.4748700         8.1821836E-31
  -0.4738700         8.7736218E-31
  -0.4728700         9.3631520E-31
  -0.4718700         9.9507967E-31
  -0.4708700         1.0536577E-30
  -0.4698700         1.1120515E-30
  -0.4688700         1.1702632E-30
  -0.4678700         1.2282946E-30
  -0.4668700         1.2861479E-30
  -0.4658700         1.3438250E-30
  -0.4648700         1.4013281E-30
  -0.4638700         1.4586589E-30
  -0.4628700         1.5158194E-30
  -0.4618700         1.5728116E-30
  -0.4608700         1.6296373E-30
  -0.4598700         1.6862982E-30
  -0.4588700         1.7427964E-30
  -0.4578700         1.7991332E-30
  -0.4568700         1.8553109E-30
  -0.4558700         1.9113311E-30
  -0.4548700         1.9671956E-30
  -0.4538700         2.0229063E-30
  -0.4528700         2.0784645E-30
  -0.4518700         2.1338721E-30
  -0.4508700         2.1891307E-30
  -0.4498700         2.2442416E-30
  -0.4488700         2.2992066E-30
  -0.4478700         2.3540275E-30
  -0.4468700         2.4087057E-30
  -0.4458700         2.4632430E-30
  -0.4448700         2.5176407E-30
  -0.4438700         2.5719006E-30
  -0.4428700         2.6260239E-30
  -0.4418700         2.6800122E-30
  -0.4408700         2.7338664E-30
  -0.4398700         2.7875886E-30
  -0.4388700         2.8411796E-30
  -0.4378700         2.8946415E-30
  -0.4368700         2.9479755E-30
  -0.4358700         3.0011828E-30
  -0.4348700         3.0542648E-30
  -0.4338700         3.1072226E-30
  -0.4328700         3.1600576E-30
  -0.4318700         3.2127713E-30
  -0.4308700         3.2653649E-30
  -0.4298700         3.3178394E-30
  -0.4288700         3.3701968E-30
  -0.4278700         3.4224377E-30
  -0.4268700         3.4745638E-30
  -0.4258700         3.5265760E-30
  -0.4248700         3.5784749E-30
  -0.4238700         3.6302625E-30
  -0.4228700         3.6819398E-30
  -0.4218700         3.7335074E-30
  -0.4208700         3.7849669E-30
  -0.4198700         3.8363197E-30
  -0.4188700         3.8875663E-30
  -0.4178700         3.9387077E-30
  -0.4168700         3.9897459E-30
  -0.4158700         4.0406811E-30
  -0.4148700         4.0915144E-30
  -0.4138700         4.1422472E-30
  -0.4128700         4.1928804E-30
  -0.4118700         4.2434142E-30
  -0.4108700         4.2938507E-30
  -0.4098700         4.3441904E-30
  -0.4088700         4.3944346E-30
  -0.4078700         4.4445840E-30
  -0.4068700         4.4946390E-30
  -0.4058700         4.5446015E-30
  -0.4048700         4.5944718E-30
  -0.4038700         4.6442514E-30
  -0.4028700         4.6939404E-30
  -0.4018700         4.7435406E-30
  -0.4008700         4.7930521E-30
  -0.3998700         4.8424762E-30
  -0.3988700         4.8918132E-30
  -0.3978700         4.9410647E-30
  -0.3968700         4.9902308E-30
  -0.3958700         5.0393134E-30
  -0.3948700         5.0883126E-30
  -0.3938700         5.1372293E-30
  -0.3928700         5.1860640E-30
  -0.3918700         5.2348175E-30
  -0.3908700         5.2834905E-30
  -0.3898700         5.3320838E-30
  -0.3888700         5.3805988E-30
  -0.3878700         5.4290355E-30
  -0.3868700         5.4773948E-30
  -0.3858700         5.5256781E-30
  -0.3848700         5.5738850E-30
  -0.3838700         5.6220171E-30
  -0.3828700         5.6700743E-30
  -0.3818700         5.7180578E-30
  -0.3808700         5.7659683E-30
  -0.3798700         5.8138062E-30
  -0.3788700         5.8615723E-30
  -0.3778700         5.9092669E-30
  -0.3768700         5.9568915E-30
  -0.3758700         6.0044470E-30
  -0.3748700         6.0519335E-30
  -0.3738700         6.0993513E-30
  -0.3728700         6.1467010E-30
  -0.3718700         6.1939833E-30
  -0.3708700         6.2411987E-30
  -0.3698700         6.2883486E-30
  -0.3688700         6.3354323E-30
  -0.3678700         6.3824513E-30
  -0.3668700         6.4294057E-30
  -0.3658700         6.4762968E-30
  -0.3648700         6.5231247E-30
  -0.3638700         6.5698895E-30
  -0.3628700         6.6165925E-30
  -0.3618700         6.6632324E-30
  -0.3608700         6.7098090E-30
  -0.3598700         6.7563247E-30
  -0.3588700         6.8027803E-30
  -0.3578700         6.8491756E-30
  -0.3568700         6.8955116E-30
  -0.3558700         6.9417903E-30
  -0.3548700         6.9880119E-30
  -0.3538700         7.0341747E-30
  -0.3528700         7.0802812E-30
  -0.3518700         7.1263312E-30
  -0.3508700         7.1723249E-30
  -0.3498700         7.2182628E-30
  -0.3488700         7.2641451E-30
  -0.3478700         7.3099724E-30
  -0.3468700         7.3557464E-30
  -0.3458700         7.4014714E-30
  -0.3448700         7.4471536E-30
  -0.3438700         7.4927883E-30
  -0.3428700         7.5383697E-30
  -0.3418700         7.5838983E-30
  -0.3408700         7.6293751E-30
  -0.3398700         7.6748015E-30
  -0.3388700         7.7201767E-30
  -0.3378700         7.7655015E-30
  -0.3368700         7.8107759E-30
  -0.3358700         7.8560014E-30
  -0.3348700         7.9011765E-30
  -0.3338700         7.9463027E-30
  -0.3328700         7.9913807E-30
  -0.3318700         8.0364114E-30
  -0.3308700         8.0813946E-30
  -0.3298700         8.1263297E-30
  -0.3288700         8.1712182E-30
  -0.3278700         8.2160593E-30
  -0.3268700         8.2608537E-30
  -0.3258700         8.3056255E-30
  -0.3248700         8.3503538E-30
  -0.3238700         8.3950173E-30
  -0.3228700         8.4396319E-30
  -0.3218700         8.4841954E-30
  -0.3208700         8.5287197E-30
  -0.3198700         8.5732064E-30
  -0.3188700         8.6176646E-30
  -0.3178700         8.6621077E-30
  -0.3168700         8.7065929E-30
  -0.3158700         8.7513557E-30
  -0.3148700         8.7963201E-30
  -0.3138700         8.8412440E-30
  -0.3128700         8.8859331E-30
  -0.3118700         8.9305665E-30
  -0.3108700         8.9751646E-30
  -0.3098700         9.0195806E-30
  -0.3088700         9.0644608E-30
  -0.3078700         9.1100639E-30
  -0.3068700         9.1555174E-30
  -0.3058700         9.2000545E-30
  -0.3048700         9.2424904E-30
  -0.3038700         9.2719421E-30
  -0.3028700         9.2829966E-30
  -0.3018700         9.2870185E-30
  -0.3008700         9.2910141E-30
  -0.2998700         9.2955693E-30
  -0.2988700         9.3006031E-30
  -0.2978700         9.3055315E-30
  -0.2968700         9.3103779E-30
  -0.2958700         9.3152025E-30
  -0.2948700         9.3194509E-30
  -0.2938700         9.3221682E-30
  -0.2928700         9.3238241E-30
  -0.2918700         9.3254724E-30
  -0.2908700         9.3272599E-30
  -0.2898700         9.3291813E-30
  -0.2888700         9.3675908E-30
  -0.2878700         9.4623142E-30
  -0.2868700         9.5766475E-30
  -0.2858700         9.6907295E-30
  -0.2848700         9.8048860E-30
  -0.2838700         9.9189861E-30
  -0.2828700         1.0033031E-29
  -0.2818700         1.0147067E-29
  -0.2808700         1.0261131E-29
  -0.2798700         1.0375544E-29
  -0.2788700         1.0490054E-29
  -0.2778700         1.0604397E-29
  -0.2768700         1.0718777E-29
  -0.2758700         1.0833018E-29
  -0.2748700         1.0947105E-29
  -0.2738700         1.1061034E-29
  -0.2728700         1.1174780E-29
  -0.2718700         1.1288385E-29
  -0.2708700         1.1401899E-29
  -0.2698700         1.1513771E-29
  -0.2688700         1.1622431E-29
  -0.2678700         1.1729509E-29
  -0.2668700         1.1836811E-29
  -0.2658700         1.1946215E-29
  -0.2648700         1.2061071E-29
  -0.2638700         1.2182186E-29
  -0.2628700         1.2309189E-29
  -0.2618700         1.2441199E-29
  -0.2608700         1.2576707E-29
  -0.2598700         1.2713446E-29
  -0.2588700         1.2849714E-29
  -0.2578700         1.2980833E-29
  -0.2568700         1.3103180E-29
  -0.2558700         1.3221383E-29
  -0.2548700         1.3338708E-29
  -0.2538700         1.3455502E-29
  -0.2528700         1.3572377E-29
  -0.2518700         1.3682941E-29
  -0.2508700         1.3782948E-29
  -0.2498700         1.3879125E-29
  -0.2488700         1.3973574E-29
  -0.2478700         1.4065960E-29
  -0.2468700         1.4158602E-29
  -0.2458700         1.4251573E-29
  -0.2448700         1.4344874E-29
  -0.2438700         1.4438709E-29
  -0.2428700         1.4551224E-29
  -0.2418700         1.4693192E-29
  -0.2408700         1.4845763E-29
  -0.2398700         1.4997913E-29
  -0.2388700         1.5150504E-29
  -0.2378700         1.5303683E-29
  -0.2368700         1.5456867E-29
  -0.2358700         1.5610010E-29
  -0.2348700         1.5764927E-29
  -0.2338700         1.5922358E-29
  -0.2328700         1.6079737E-29
  -0.2318700         1.6236327E-29
  -0.2308700         1.6393082E-29
  -0.2298700         1.6549994E-29
  -0.2288700         1.6706699E-29
  -0.2278700         1.6862462E-29
  -0.2268700         1.7016843E-29
  -0.2258700         1.7170612E-29
  -0.2248700         1.7324367E-29
  -0.2238700         1.7478076E-29
  -0.2228700         1.7631738E-29
  -0.2218700         1.7785352E-29
  -0.2208700         1.7938924E-29
  -0.2198700         1.8092815E-29
  -0.2188700         1.8247128E-29
  -0.2178700         1.8401508E-29
  -0.2168700         1.8555860E-29
  -0.2158700         1.8710176E-29
  -0.2148700         1.8864391E-29
  -0.2138700         1.9018439E-29
  -0.2128700         1.9172419E-29
  -0.2118700         1.9326350E-29
  -0.2108700         1.9472762E-29
  -0.2098700         1.9609450E-29
  -0.2088700         1.9743859E-29
  -0.2078700         1.9879249E-29
  -0.2068700         2.0018021E-29
  -0.2058700         2.0159398E-29
  -0.2048700         2.0301033E-29
  -0.2038700         2.0440930E-29
  -0.2028700         2.0579639E-29
  -0.2018700         2.0718909E-29
  -0.2008700         2.0858122E-29
  -0.1998700         2.0997347E-29
  -0.1988700         2.1136580E-29
  -0.1978700         2.1275896E-29
  -0.1968700         2.1415301E-29
  -0.1958700         2.1554660E-29
  -0.1948700         2.1693976E-29
  -0.1938700         2.1833132E-29
  -0.1928700         2.1972378E-29
  -0.1918700         2.2111781E-29
  -0.1908700         2.2251089E-29
  -0.1898700         2.2389954E-29
  -0.1888700         2.2528499E-29
  -0.1878700         2.2667059E-29
  -0.1868700         2.2805314E-29
  -0.1858700         2.2943281E-29
  -0.1848700         2.3081440E-29
  -0.1838700         2.3219816E-29
  -0.1828700         2.3358045E-29
  -0.1818700         2.3495661E-29
  -0.1808700         2.3632883E-29
  -0.1798700         2.3770867E-29
  -0.1788700         2.3909496E-29
  -0.1778700         2.4048028E-29
  -0.1768700         2.4186293E-29
  -0.1758700         2.4324271E-29
  -0.1748700         2.4461995E-29
  -0.1738700         2.4599538E-29
  -0.1728700         2.4736877E-29
  -0.1718700         2.4873996E-29
  -0.1708700         2.5011178E-29
  -0.1698700         2.5147987E-29
  -0.1688700         2.5284436E-29
  -0.1678700         2.5420954E-29
  -0.1668700         2.5557467E-29
  -0.1658700         2.5694000E-29
  -0.1648700         2.5830530E-29
  -0.1638700         2.5967082E-29
  -0.1628700         2.6103672E-29
  -0.1618700         2.6240311E-29
  -0.1608700         2.6376871E-29
  -0.1598700         2.6512141E-29
  -0.1588700         2.6644525E-29
  -0.1578700         2.6777164E-29
  -0.1568700         2.6913074E-29
  -0.1558700         2.7050514E-29
  -0.1548700         2.7188091E-29
  -0.1538700         2.7325579E-29
  -0.1528700         2.7463036E-29
  -0.1518700         2.7600373E-29
  -0.1508700         2.7737673E-29
  -0.1498700         2.7874577E-29
  -0.1488700         2.8011887E-29
  -0.1478700         2.8166412E-29
  -0.1468700         2.8348320E-29
  -0.1458700         2.8541229E-29
  -0.1448700         2.8733728E-29
  -0.1438700         2.8926041E-29
  -0.1428700         2.9118246E-29
  -0.1418700         2.9310060E-29
  -0.1408700         2.9502081E-29
  -0.1398700         2.9694539E-29
  -0.1388700         2.9887234E-29
  -0.1378700         3.0078888E-29
  -0.1368700         3.0269046E-29
  -0.1358700         3.0458338E-29
  -0.1348700         3.0647107E-29
  -0.1338700         3.0835824E-29
  -0.1328700         3.1024493E-29
  -0.1318700         3.1213107E-29
  -0.1308700         3.1401671E-29
  -0.1298700         3.1595167E-29
  -0.1288700         3.1796261E-29
  -0.1278700         3.1999850E-29
  -0.1268700         3.2203246E-29
  -0.1258700         3.2406720E-29
  -0.1248700         3.2610390E-29
  -0.1238700         3.2813928E-29
  -0.1228700         3.3011790E-29
  -0.1218700         3.3203104E-29
  -0.1208700         3.3392682E-29
  -0.1198700         3.3574364E-29
  -0.1188700         3.3746849E-29
  -0.1178700         3.3917363E-29
  -0.1168700         3.4087946E-29
  -0.1158700         3.4258917E-29
  -0.1148700         3.4434180E-29
  -0.1138700         3.4615515E-29
  -0.1128700         3.4804834E-29
  -0.1118700         3.5000024E-29
  -0.1108700         3.5195091E-29
  -0.1098700         3.5389995E-29
  -0.1088700         3.5584839E-29
  -0.1078700         3.5780360E-29
  -0.1068700         3.5976729E-29
  -0.1058700         3.6173337E-29
  -0.1048700         3.6370534E-29
  -0.1038700         3.6569669E-29
  -0.1028700         3.6770183E-29
  -0.1018700         3.6970729E-29
  -0.1008700         3.7171200E-29
  -9.9869996E-02     3.7371512E-29
  -9.8870002E-02     3.7571755E-29
  -9.7870000E-02     3.7771747E-29
  -9.6869998E-02     3.7970266E-29
  -9.5870003E-02     3.8170246E-29
  -9.4870001E-02     3.8372890E-29
  -9.3869999E-02     3.8575459E-29
  -9.2869997E-02     3.8777934E-29
  -9.1870002E-02     3.8980295E-29
  -9.0870000E-02     3.9181393E-29
  -8.9869998E-02     3.9382026E-29
  -8.8869996E-02     3.9583653E-29
  -8.7870002E-02     3.9785551E-29
  -8.6870000E-02     3.9987202E-29
  -8.5869998E-02     4.0188449E-29
  -8.4870003E-02     4.0389363E-29
  -8.3870001E-02     4.0590018E-29
  -8.2869999E-02     4.0790802E-29
  -8.1869997E-02     4.0992161E-29
  -8.0870003E-02     4.1193863E-29
  -7.9870000E-02     4.1395553E-29
  -7.8869998E-02     4.1597297E-29
  -7.7869996E-02     4.1799123E-29
  -7.6870002E-02     4.2000888E-29
  -7.5870000E-02     4.2214762E-29
  -7.4869998E-02     4.2366772E-29
  -7.3870003E-02     4.2405165E-29
  -7.2870001E-02     4.2404241E-29
  -7.1869999E-02     4.2404190E-29
  -7.0869997E-02     4.2404948E-29
  -6.9870003E-02     4.2405739E-29
  -6.8870001E-02     4.2405950E-29
  -6.7869999E-02     4.2406025E-29
  -6.6869996E-02     4.2406347E-29
  -6.5870002E-02     4.2406606E-29
  -6.4870000E-02     4.2401617E-29
  -6.3869998E-02     4.2389023E-29
  -6.2870003E-02     4.2371383E-29
  -6.1870001E-02     4.2351175E-29
  -6.0869999E-02     4.2331158E-29
  -5.9870001E-02     4.2310650E-29
  -5.8869999E-02     4.2289455E-29
  -5.7870001E-02     4.2267352E-29
  -5.6869999E-02     4.2244524E-29
  -5.5870000E-02     4.2221663E-29
  -5.4869998E-02     4.2197769E-29
  -5.3870000E-02     4.2172955E-29
  -5.2870002E-02     4.2147036E-29
  -5.1870000E-02     4.2119038E-29
  -5.0870001E-02     4.2091717E-29
  -4.9869999E-02     4.2066288E-29
  -4.8870001E-02     4.2044017E-29
  -4.7869999E-02     4.2027216E-29
  -4.6870001E-02     4.2013027E-29
  -4.5869999E-02     4.1999022E-29
  -4.4870000E-02     4.1985336E-29
  -4.3869998E-02     4.1972303E-29
  -4.2870000E-02     4.1959513E-29
  -4.1870002E-02     4.1945860E-29
  -4.0870000E-02     4.1933483E-29
  -3.9870001E-02     4.1922397E-29
  -3.8869999E-02     4.1910733E-29
  -3.7870001E-02     4.1899358E-29
  -3.6869999E-02     4.1888179E-29
  -3.5870001E-02     4.1877005E-29
  -3.4869999E-02     4.1866196E-29
  -3.3870000E-02     4.1855736E-29
  -3.2869998E-02     4.1845649E-29
  -3.1870000E-02     4.1835775E-29
  -3.0870000E-02     4.1829844E-29
  -2.9870000E-02     4.1827274E-29
  -2.8870000E-02     4.1826308E-29
  -2.7869999E-02     4.1827428E-29
  -2.6869999E-02     4.1828156E-29
  -2.5869999E-02     4.1824783E-29
  -2.4870001E-02     4.1818129E-29
  -2.3870001E-02     4.1809592E-29
  -2.2870000E-02     4.1802502E-29
  -2.1870000E-02     4.1801118E-29
  -2.0870000E-02     4.1801972E-29
  -1.9870000E-02     4.1803293E-29
  -1.8870000E-02     4.1804160E-29
  -1.7870000E-02     4.1807573E-29
  -1.6869999E-02     4.1815523E-29
  -1.5869999E-02     4.1821199E-29
  -1.4870000E-02     4.1822682E-29
  -1.3870000E-02     4.1820753E-29
  -1.2870000E-02     4.1815722E-29
  -1.1870000E-02     4.1810016E-29
  -1.0870000E-02     4.1803239E-29
  -9.8700002E-03     4.1796002E-29
  -8.8700000E-03     4.1799971E-29
  -7.8699999E-03     4.1826197E-29
  -6.8700002E-03     4.1863431E-29
  -5.8700000E-03     4.1900703E-29
  -4.8699998E-03     4.1937708E-29
  -3.8699999E-03     4.1979311E-29
  -2.8700000E-03     4.2034411E-29
  -1.8700000E-03     4.2109209E-29
  -8.6999999E-04     4.2194892E-29
   1.3000000E-04     4.2247937E-29
   1.1300000E-03     4.2254704E-29
   2.1299999E-03     4.2247988E-29
   3.1300001E-03     4.2242198E-29
   4.1299998E-03     4.2236959E-29
   5.1299999E-03     4.2231527E-29
   6.1300001E-03     4.2225770E-29
   7.1299998E-03     4.2219048E-29
   8.1300000E-03     4.2210303E-29
   9.1300001E-03     4.2200580E-29
   1.0130000E-02     4.2186487E-29
   1.1130000E-02     4.2168718E-29
   1.2130000E-02     4.2152621E-29
   1.3130000E-02     4.2139630E-29
   1.4130000E-02     4.2134177E-29
   1.5130000E-02     4.2132444E-29
   1.6130000E-02     4.2117464E-29
   1.7130001E-02     4.2095806E-29
   1.8130001E-02     4.2068398E-29
   1.9130001E-02     4.2031089E-29
   2.0129999E-02     4.1995498E-29
   2.1129999E-02     4.1960567E-29
   2.2129999E-02     4.1925891E-29
   2.3130000E-02     4.1891715E-29
   2.4130000E-02     4.1857677E-29
   2.5130000E-02     4.1827133E-29
   2.6130000E-02     4.1799992E-29
   2.7130000E-02     4.1773469E-29
   2.8130000E-02     4.1745880E-29
   2.9130001E-02     4.1714424E-29
   3.0130001E-02     4.1677515E-29
   3.1129999E-02     4.1637700E-29
   3.2129999E-02     4.1598335E-29
   3.3130001E-02     4.1558944E-29
   3.4130000E-02     4.1519625E-29
   3.5130002E-02     4.1480637E-29
   3.6130000E-02     4.1444150E-29
   3.7129998E-02     4.1412634E-29
   3.8130000E-02     4.1384187E-29
   3.9129999E-02     4.1352524E-29
   4.0130001E-02     4.1319431E-29
   4.1129999E-02     4.1287776E-29
   4.2130001E-02     4.1255953E-29
   4.3129999E-02     4.1222851E-29
   4.4130001E-02     4.1185208E-29
   4.5130000E-02     4.1145940E-29
   4.6130002E-02     4.1106775E-29
   4.7130000E-02     4.1066956E-29
   4.8129998E-02     4.1028134E-29
   4.9130000E-02     4.0989477E-29
   5.0129998E-02     4.0949032E-29
   5.1130001E-02     4.0903788E-29
   5.2129999E-02     4.0854872E-29
   5.3130001E-02     4.0803597E-29
   5.4129999E-02     4.0747782E-29
   5.5130001E-02     4.0688478E-29
   5.6129999E-02     4.0623529E-29
   5.7130001E-02     4.0554836E-29
   5.8130000E-02     4.0492614E-29
   5.9130002E-02     4.0436660E-29
   6.0130000E-02     4.0382171E-29
   6.1129998E-02     4.0328958E-29
   6.2130000E-02     4.0276151E-29
   6.3129999E-02     4.0223486E-29
   6.4130001E-02     4.0170755E-29
   6.5130003E-02     4.0117750E-29
   6.6129997E-02     4.0064206E-29
   6.7129999E-02     4.0010280E-29
   6.8130001E-02     3.9956375E-29
   6.9130003E-02     3.9904357E-29
   7.0129998E-02     3.9861110E-29
   7.1130000E-02     3.9830461E-29
   7.2130002E-02     3.9809529E-29
   7.3129997E-02     3.9792391E-29
   7.4129999E-02     3.9779189E-29
   7.5130001E-02     3.9770489E-29
   7.6130003E-02     3.9760682E-29
   7.7129997E-02     3.9750276E-29
   7.8129999E-02     3.9740981E-29
   7.9130001E-02     3.9732070E-29
   8.0130003E-02     3.9723370E-29
   8.1129998E-02     3.9714340E-29
   8.2130000E-02     3.9705288E-29
   8.3130002E-02     3.9668129E-29
   8.4129997E-02     3.9565902E-29
   8.5129999E-02     3.9390540E-29
   8.6130001E-02     3.9177122E-29
   8.7130003E-02     3.8962607E-29
   8.8129997E-02     3.8748206E-29
   8.9129999E-02     3.8533218E-29
   9.0130001E-02     3.8318110E-29
   9.1130003E-02     3.8103444E-29
   9.2129998E-02     3.7888802E-29
   9.3130000E-02     3.7673886E-29
   9.4130002E-02     3.7458892E-29
   9.5129997E-02     3.7244061E-29
   9.6129999E-02     3.7029431E-29
   9.7130001E-02     3.6814404E-29
   9.8130003E-02     3.6611025E-29
   9.9129997E-02     3.6420861E-29
   0.1001300         3.6229177E-29
   0.1011300         3.6034101E-29
   0.1021300         3.5839332E-29
   0.1031300         3.5649138E-29
   0.1041300         3.5462422E-29
   0.1051300         3.5273615E-29
   0.1061300         3.5082364E-29
   0.1071300         3.4890974E-29
   0.1081300         3.4697951E-29
   0.1091300         3.4502427E-29
   0.1101300         3.4305242E-29
   0.1111300         3.4106986E-29
   0.1121300         3.3908916E-29
   0.1131300         3.3711014E-29
   0.1141300         3.3512638E-29
   0.1151300         3.3313265E-29
   0.1161300         3.3112965E-29
   0.1171300         3.2911991E-29
   0.1181300         3.2710130E-29
   0.1191300         3.2508364E-29
   0.1201300         3.2306927E-29
   0.1211300         3.2105535E-29
   0.1221300         3.1904757E-29
   0.1231300         3.1706001E-29
   0.1241300         3.1511506E-29
   0.1251300         3.1326198E-29
   0.1261300         3.1148805E-29
   0.1271300         3.0975700E-29
   0.1281300         3.0812854E-29
   0.1291300         3.0661404E-29
   0.1301300         3.0516197E-29
   0.1311300         3.0374371E-29
   0.1321300         3.0235436E-29
   0.1331300         3.0100359E-29
   0.1341300         2.9968328E-29
   0.1351300         2.9836949E-29
   0.1361300         2.9705546E-29
   0.1371300         2.9574255E-29
   0.1381300         2.9443012E-29
   0.1391300         2.9311622E-29
   0.1401300         2.9179741E-29
   0.1411300         2.9048227E-29
   0.1421300         2.8915064E-29
   0.1431300         2.8779292E-29
   0.1441300         2.8642701E-29
   0.1451300         2.8501928E-29
   0.1461300         2.8356791E-29
   0.1471300         2.8210709E-29
   0.1481300         2.8059912E-29
   0.1491300         2.7906746E-29
   0.1501300         2.7757634E-29
   0.1511300         2.7612422E-29
   0.1521300         2.7469325E-29
   0.1531300         2.7326960E-29
   0.1541300         2.7186686E-29
   0.1551300         2.7049906E-29
   0.1561300         2.6916333E-29
   0.1571300         2.6786255E-29
   0.1581300         2.6661070E-29
   0.1591300         2.6539348E-29
   0.1601300         2.6418980E-29
   0.1611300         2.6298886E-29
   0.1621300         2.6182085E-29
   0.1631300         2.6059830E-29
   0.1641300         2.5918915E-29
   0.1651300         2.5765476E-29
   0.1661300         2.5607255E-29
   0.1671300         2.5430193E-29
   0.1681300         2.5225700E-29
   0.1691300         2.5005096E-29
   0.1701300         2.4772507E-29
   0.1711300         2.4534051E-29
   0.1721300         2.4304523E-29
   0.1731300         2.4083433E-29
   0.1741300         2.3864828E-29
   0.1751300         2.3649270E-29
   0.1761300         2.3434982E-29
   0.1771300         2.3222614E-29
   0.1781300         2.3011712E-29
   0.1791300         2.2802025E-29
   0.1801300         2.2592085E-29
   0.1811300         2.2380448E-29
   0.1821300         2.2166846E-29
   0.1831300         2.1951328E-29
   0.1841300         2.1736393E-29
   0.1851300         2.1521051E-29
   0.1861300         2.1303268E-29
   0.1871300         2.1084013E-29
   0.1881300         2.0865197E-29
   0.1891300         2.0647332E-29
   0.1901300         2.0429324E-29
   0.1911300         2.0212514E-29
   0.1921300         1.9997606E-29
   0.1931300         1.9779425E-29
   0.1941300         1.9556859E-29
   0.1951300         1.9331081E-29
   0.1961300         1.9103573E-29
   0.1971300         1.8877521E-29
   0.1981300         1.8653856E-29
   0.1991300         1.8428455E-29
   0.2001300         1.8172407E-29
   0.2011300         1.7867382E-29
   0.2021300         1.7514330E-29
   0.2031300         1.7123457E-29
   0.2041300         1.6706858E-29
   0.2051300         1.6268053E-29
   0.2061300         1.5823003E-29
   0.2071300         1.5374450E-29
   0.2081300         1.4917831E-29
   0.2091300         1.4457086E-29
   0.2101300         1.3993729E-29
   0.2111300         1.3526760E-29
   0.2121300         1.3055182E-29
   0.2131300         1.2579220E-29
   0.2141300         1.2100400E-29
   0.2151300         1.1619689E-29
   0.2161300         1.1139522E-29
   0.2171300         1.0662427E-29
   0.2181300         1.0187932E-29
   0.2191300         9.7383594E-30
   0.2201300         9.3477688E-30
   0.2211300         9.0181053E-30
   0.2221300         8.7362138E-30
   0.2231300         8.4937039E-30
   0.2241300         8.2991917E-30
   0.2251300         8.1696895E-30
   0.2261300         8.0756770E-30
   0.2271300         7.9746334E-30
   0.2281300         7.8653670E-30
   0.2291300         7.7835744E-30
   0.2301300         7.7352937E-30
   0.2311300         7.7265932E-30
   0.2321300         7.7775416E-30
   0.2331300         7.8543659E-30
   0.2341300         7.9258600E-30
   0.2351300         8.0011691E-30
   0.2361300         8.0983812E-30
   0.2371300         8.2136278E-30
   0.2381300         8.3394173E-30
   0.2391300         8.4820625E-30
   0.2401300         8.6475616E-30
   0.2411300         8.8350441E-30
   0.2421300         9.0401339E-30
   0.2431300         9.2661500E-30
   0.2441300         9.5065098E-30
   0.2451300         9.7449287E-30
   0.2461300         9.9820385E-30
   0.2471300         1.0218528E-29
   0.2481300         1.0445598E-29
   0.2491300         1.0663691E-29
   0.2501300         1.0875991E-29
   0.2511300         1.1079849E-29
   0.2521300         1.1280433E-29
   0.2531300         1.1481785E-29
   0.2541300         1.1678662E-29
   0.2551300         1.1864925E-29
   0.2561300         1.2038797E-29
   0.2571300         1.2202968E-29
   0.2581300         1.2355346E-29
   0.2591300         1.2498515E-29
   0.2601300         1.2640251E-29
   0.2611300         1.2782031E-29
   0.2621300         1.2923643E-29
   0.2631300         1.3063784E-29
   0.2641300         1.3205870E-29
   0.2651300         1.3350760E-29
   0.2661300         1.3495406E-29
   0.2671300         1.3639830E-29
   0.2681300         1.3786168E-29
   0.2691300         1.3937547E-29
   0.2701300         1.4090836E-29
   0.2711300         1.4242252E-29
   0.2721300         1.4394029E-29
   0.2731300         1.4544302E-29
   0.2741300         1.4691818E-29
   0.2751300         1.4840732E-29
   0.2761300         1.4995197E-29
   0.2771300         1.5153859E-29
   0.2781300         1.5309995E-29
   0.2791300         1.5469447E-29
   0.2801300         1.5637194E-29
   0.2811300         1.5810165E-29
   0.2821300         1.5988882E-29
   0.2831300         1.6177790E-29
   0.2841300         1.6380356E-29
   0.2851300         1.6579997E-29
   0.2861300         1.6761535E-29
   0.2871300         1.6926512E-29
   0.2881300         1.7072884E-29
   0.2891300         1.7196282E-29
   0.2901300         1.7304541E-29
   0.2911300         1.7405195E-29
   0.2921300         1.7489859E-29
   0.2931300         1.7552570E-29
   0.2941300         1.7595489E-29
   0.2951300         1.7622355E-29
   0.2961300         1.7602970E-29
   0.2971300         1.7528532E-29
   0.2981300         1.7423276E-29
   0.2991300         1.7296480E-29
   0.3001300         1.7161298E-29
   0.3011300         1.7006592E-29
   0.3021300         1.6811455E-29
   0.3031300         1.6563709E-29
   0.3041300         1.6250953E-29
   0.3051300         1.5880851E-29
   0.3061300         1.5489866E-29
   0.3071300         1.5100692E-29
   0.3081300         1.4711068E-29
   0.3091300         1.4319432E-29
   0.3101300         1.3926169E-29
   0.3111300         1.3519747E-29
   0.3121300         1.3101305E-29
   0.3131300         1.2684024E-29
   0.3141300         1.2262381E-29
   0.3151300         1.1835438E-29
   0.3161300         1.1411179E-29
   0.3171300         1.0989940E-29
   0.3181300         1.0568902E-29
   0.3191300         1.0144430E-29
   0.3201300         9.7170847E-30
   0.3211300         9.2933131E-30
   0.3221300         8.8728631E-30
   0.3231300         8.4552861E-30
   0.3241300         8.0424450E-30
   0.3251300         7.6297784E-30
   0.3261300         7.2196260E-30
   0.3271300         6.8052689E-30
   0.3281300         6.3892733E-30
   0.3291300         5.9790600E-30
   0.3301300         5.5709077E-30
   0.3311300         5.1683526E-30
   0.3321300         4.7694756E-30
   0.3331300         4.3762474E-30
   0.3341300         3.9908673E-30
   0.3351300         3.6068771E-30
   0.3361300         3.2305786E-30
   0.3371300         2.8685606E-30
   0.3381300         2.5325016E-30
   0.3391300         2.2376978E-30
   0.3401300         1.9775050E-30
   0.3411300         1.7349407E-30
   0.3421300         1.5028731E-30
   0.3431300         1.2941514E-30
   0.3441300         1.1126822E-30
   0.3451300         9.5507120E-31
   0.3461300         8.2066348E-31
   0.3471300         7.0531575E-31
   0.3481300         5.9618346E-31
   0.3491300         4.8960059E-31
   0.3501300         3.8822255E-31
   0.3511300         2.8814068E-31
   0.3521300         1.8959578E-31
   0.3531300         9.8772970E-32
   0.3541300         4.4310239E-32
   0.3551300         7.0187974E-32
   0.3561300         1.8969103E-31
   0.3571300         3.9901126E-31
   0.3581300         7.0418699E-31
   0.3591300         1.0931094E-30
   0.3601300         1.5516626E-30
   0.3611300         2.0682441E-30
   0.3621300         2.6085356E-30
   0.3631300         3.1471482E-30
   0.3641300         3.6833670E-30
   0.3651300         4.2142898E-30
   0.3661300         4.7360878E-30
   0.3671300         5.2412841E-30
   0.3681300         5.7205491E-30